 This file generated by code single2data.f90. Author Ruan Yang

        6785           atoms
        6490           bonds
       11800          angles
       17405       dihedrals

           6      atom types
           7      bond types
          11     angle types
          16  dihedral types

         0.000        41.500 xlo xhi
         0.000        41.500 ylo yhi
         0.000        41.500 zlo zhi

 Masses

       1    12.01000
       2    12.01000
       3    16.00000
       4    16.00000
       5     1.00800
       6     1.00800

 Pair Coeffs

    1       0.109       3.400
    2       0.086       3.400
    3       0.210       2.960
    4       0.170       3.000
    5       0.016       2.650
    6       0.016       2.471

 Bond Coeffs

    1     300.900       1.538
    2     330.600       1.097
    3     313.000       1.524
    4     637.700       1.218
    5     390.800       1.358
    6     308.600       1.432
    7     330.600       1.097

 Angle Coeffs

    1      62.860     111.510
    2      46.340     109.800
    3      63.270     111.040
    4      67.400     123.200
    5      68.890     110.720
    6      46.930     108.770
    7      63.280     115.980
    8      75.320     123.250
    9      50.800     109.780
   10      39.400     107.580
   11      39.240     108.460

 Dihedral Coeffs

    1       0.200   -1    1
    2       0.250   -1    2
    3       0.180    1    3
    4       0.160    1    3
    5       0.156    1    3
    6       0.000   -1    2
    7       0.000    1    1
    8       2.700   -1    2
    9       1.150    1    3
   10       0.383    1    3
   11       0.800    1    1
   12       0.000    1    2
   13       0.080   -1    3
   14       1.400   -1    1
   15       0.150    1    3
   16      10.500   -1    2

 Atoms

       1       0   1 -0.2116   32.4320000000   16.4010000000    0.8950000000
       2       0   1  0.0838   31.3620000000   17.4780000000    0.9200000000
       3       0   1 -0.0009   31.9880000000   18.8660000000    1.0620000000
       4       0   1  0.1663   30.9110000000   19.9430000000    1.0880000000
       5       0   1 -0.5207   31.4910000000   21.3530000000    1.2290000000
       6       0   2  0.9928   30.3710000000   22.3730000000    1.2480000000
       7       0   3 -0.6336   29.1800000000   22.1010000000    1.1620000000
       8       0   4 -0.5061   30.8620000000   23.6390000000    1.3730000000
       9       0   1  0.0774   29.8400000000   24.6430000000    1.3960000000
      10       0   5  0.0466   31.9750000000   15.4120000000    0.7930000000
      11       0   5  0.0466   33.0170000000   16.4160000000    1.8180000000
      12       0   5  0.0466   33.1130000000   16.5540000000    0.0520000000
      13       0   5 -0.0055   30.6750000000   17.2880000000    1.7540000000
      14       0   5 -0.0055   30.7700000000   17.4250000000   -0.0020000000
      15       0   5  0.0082   32.6740000000   19.0460000000    0.2270000000
      16       0   5  0.0082   32.5790000000   18.9090000000    1.9850000000
      17       0   5 -0.0207   30.2220000000   19.7480000000    1.9190000000
      18       0   5 -0.0207   30.3170000000   19.8840000000    0.1670000000
      19       0   5  0.1344   32.1580000000   21.5650000000    0.3860000000
      20       0   5  0.1344   32.0620000000   21.4270000000    2.1620000000
      21       0   6  0.0599   30.3160000000   25.6230000000    1.4980000000
      22       0   6  0.0599   29.1720000000   24.4960000000    2.2520000000
      23       0   6  0.0599   29.2700000000   24.6360000000    0.4600000000
      24       1   1 -0.2116   15.7600000000   38.9350000000   31.1550000000
      25       1   1  0.0838   15.6070000000   39.0540000000   29.6500000000
      26       1   1 -0.0009   14.1420000000   38.9130000000   29.2380000000
      27       1   1  0.1663   13.9930000000   39.0320000000   27.7260000000
      28       1   1 -0.5207   12.5390000000   38.8970000000   27.2650000000
      29       1   2  0.9928   12.4620000000   39.0240000000   25.7570000000
      30       1   3 -0.6336   13.4260000000   39.2090000000   25.0230000000
      31       1   4 -0.5061   11.1760000000   38.9070000000   25.3200000000
      32       1   1  0.0774   11.0480000000   39.0210000000   23.8970000000
      33       1   5  0.0466   16.8110000000   39.0370000000   31.4420000000
      34       1   5  0.0466   15.4020000000   37.9620000000   31.5050000000
      35       1   5  0.0466   15.1880000000   39.7160000000   31.6650000000
      36       1   5 -0.0055   16.2120000000   38.2800000000   29.1610000000
      37       1   5 -0.0055   15.9990000000   40.0240000000   29.3200000000
      38       1   5  0.0082   13.5450000000   39.6880000000   29.7320000000
      39       1   5  0.0082   13.7580000000   37.9420000000   29.5730000000
      40       1   5 -0.0207   14.6030000000   38.2600000000   27.2390000000
      41       1   5 -0.0207   14.3900000000   40.0000000000   27.3980000000
      42       1   5  0.1344   11.9300000000   39.6830000000   27.7250000000
      43       1   5  0.1344   12.1450000000   37.9190000000   27.5640000000
      44       1   6  0.0599    9.9920000000   38.9170000000   23.6320000000
      45       1   6  0.0599   11.6080000000   38.2250000000   23.3930000000
      46       1   6  0.0599   11.3910000000   40.0050000000   23.5550000000
      47       2   1 -0.2116   27.3200000000   18.9280000000    5.2810000000
      48       2   1  0.0838   28.4120000000   19.9160000000    5.6510000000
      49       2   1 -0.0009   29.7960000000   19.3280000000    5.3750000000
      50       2   1  0.1663   30.8890000000   20.3220000000    5.7470000000
      51       2   1 -0.5207   32.2950000000   19.7760000000    5.4870000000
      52       2   2  0.9928   33.3310000000   20.8110000000    5.8780000000
      53       2   3 -0.6336   33.0720000000   21.9180000000    6.3330000000
      54       2   4 -0.5061   34.5940000000   20.3490000000    5.6560000000
      55       2   1  0.0774   35.6130000000   21.2920000000    6.0100000000
      56       2   5  0.0466   26.3330000000   19.3570000000    5.4820000000
      57       2   5  0.0466   27.4190000000   18.0070000000    5.8620000000
      58       2   5  0.0466   27.3740000000   18.6720000000    4.2190000000
      59       2   5 -0.0055   28.3200000000   20.1790000000    6.7120000000
      60       2   5 -0.0055   28.2750000000   20.8410000000    5.0770000000
      61       2   5  0.0082   29.8780000000   19.0660000000    4.3130000000
      62       2   5  0.0082   29.9230000000   18.4030000000    5.9500000000
      63       2   5 -0.0207   30.7910000000   20.5880000000    6.8070000000
      64       2   5 -0.0207   30.7460000000   21.2480000000    5.1760000000
      65       2   5  0.1344   32.4090000000   19.5360000000    4.4240000000
      66       2   5  0.1344   32.4540000000   18.8660000000    6.0770000000
      67       2   6  0.0599   36.5900000000   20.8450000000    5.8020000000
      68       2   6  0.0599   35.5660000000   21.5290000000    7.0780000000
      69       2   6  0.0599   35.5200000000   22.2050000000    5.4100000000
      70       3   1 -0.2116   13.4410000000   20.4200000000   22.2050000000
      71       3   1  0.0838   13.7320000000   21.6800000000   21.4100000000
      72       3   1 -0.0009   12.4460000000   22.2670000000   20.8280000000
      73       3   1  0.1663   12.7420000000   23.5310000000   20.0310000000
      74       3   1 -0.5207   11.4820000000   24.1560000000   19.4280000000
      75       3   2  0.9928   11.8450000000   25.4050000000   18.6510000000
      76       3   3 -0.6336   12.9830000000   25.8430000000   18.5290000000
      77       3   4 -0.5061   10.7380000000   25.9820000000   18.1020000000
      78       3   1  0.0774   11.0290000000   27.1690000000   17.3550000000
      79       3   5  0.0466   14.3660000000   20.0070000000   22.6180000000
      80       3   5  0.0466   12.9790000000   19.6600000000   21.5690000000
      81       3   5  0.0466   12.7610000000   20.6350000000   23.0350000000
      82       3   5 -0.0055   14.4370000000   21.4470000000   20.6030000000
      83       3   5 -0.0055   14.2200000000   22.4160000000   22.0610000000
      84       3   5  0.0082   11.7460000000   22.4950000000   21.6410000000
      85       3   5  0.0082   11.9630000000   21.5240000000   20.1820000000
      86       3   5 -0.0207   13.4520000000   23.2960000000   19.2280000000
      87       3   5 -0.0207   13.2350000000   24.2630000000   20.6820000000
      88       3   5  0.1344   10.7800000000   24.4200000000   20.2270000000
      89       3   5  0.1344   10.9990000000   23.4400000000   18.7530000000
      90       3   6  0.0599   10.0930000000   27.5660000000   16.9520000000
      91       3   6  0.0599   11.6950000000   26.9440000000   16.5150000000
      92       3   6  0.0599   11.4740000000   27.9340000000   18.0020000000
      93       4   1 -0.2116   29.0840000000   15.8340000000   14.9230000000
      94       4   1  0.0838   28.1710000000   16.9090000000   15.4860000000
      95       4   1 -0.0009   28.9450000000   18.2040000000   15.7360000000
      96       4   1  0.1663   28.0260000000   19.2810000000   16.3010000000
      97       4   1 -0.5207   28.7570000000   20.5980000000   16.5680000000
      98       4   2  0.9928   27.7890000000   21.6220000000   17.1270000000
      99       4   3 -0.6336   26.5990000000   21.4160000000   17.3310000000
     100       4   4 -0.5061   28.4160000000   22.8070000000   17.3740000000
     101       4   1  0.0774   27.5420000000   23.8110000000   17.9050000000
     102       4   5  0.0466   28.5230000000   14.9110000000   14.7470000000
     103       4   5  0.0466   29.8980000000   15.6140000000   15.6200000000
     104       4   5  0.0466   29.5220000000   16.1570000000   13.9740000000
     105       4   5 -0.0055   27.7230000000   16.5530000000   16.4210000000
     106       4   5 -0.0055   27.3490000000   17.0920000000   14.7840000000
     107       4   5  0.0082   29.3920000000   18.5520000000   14.7980000000
     108       4   5  0.0082   29.7660000000   18.0120000000   16.4370000000
     109       4   5 -0.0207   27.5740000000   18.9190000000   17.2330000000
     110       4   5 -0.0207   27.2010000000   19.4570000000   15.6000000000
     111       4   5  0.1344   29.1860000000   20.9800000000   15.6350000000
     112       4   5  0.1344   29.5650000000   20.4340000000   17.2910000000
     113       4   6  0.0599   28.1210000000   24.7240000000   18.0740000000
     114       4   6  0.0599   27.1220000000   23.4900000000   18.8650000000
     115       4   6  0.0599   26.7410000000   24.0410000000   17.1940000000
     116       5   1 -0.2116   25.9760000000   35.4970000000   27.7800000000
     117       5   1  0.0838   26.6490000000   34.2050000000   28.2080000000
     118       5   1 -0.0009   25.6200000000   33.2010000000   28.7270000000
     119       5   1  0.1663   26.2980000000   31.9060000000   29.1550000000
     120       5   1 -0.5207   25.3060000000   30.8670000000   29.6830000000
     121       5   2  0.9928   26.0440000000   29.6070000000   30.0900000000
     122       5   3 -0.6336   27.2560000000   29.4530000000   30.0040000000
     123       5   4 -0.5061   25.1810000000   28.6650000000   30.5640000000
     124       5   1  0.0774   25.8310000000   27.4510000000   30.9630000000
     125       5   5  0.0466   26.7190000000   36.2100000000   27.4100000000
     126       5   5  0.0466   25.4490000000   35.9560000000   28.6220000000
     127       5   5  0.0466   25.2520000000   35.3110000000   26.9820000000
     128       5   5 -0.0055   27.3890000000   34.4220000000   28.9870000000
     129       5   5 -0.0055   27.1930000000   33.7800000000   27.3560000000
     130       5   5  0.0082   24.8820000000   32.9920000000   27.9430000000
     131       5   5  0.0082   25.0790000000   33.6350000000   29.5760000000
     132       5   5 -0.0207   27.0430000000   32.1250000000   29.9300000000
     133       5   5 -0.0207   26.8470000000   31.4850000000   28.3020000000
     134       5   5  0.1344   24.5760000000   30.6210000000   28.9030000000
     135       5   5  0.1344   24.7750000000   31.2700000000   30.5530000000
     136       5   6  0.0599   25.0730000000   26.7530000000   31.3290000000
     137       5   6  0.0599   26.5410000000   27.6420000000   31.7760000000
     138       5   6  0.0599   26.3400000000   26.9870000000   30.1120000000
     139       6   1 -0.2116   12.7600000000    3.5680000000   18.0310000000
     140       6   1  0.0838   12.6680000000    4.6060000000   16.9270000000
     141       6   1 -0.0009   11.4220000000    4.3810000000   16.0700000000
     142       6   1  0.1663   11.3330000000    5.4240000000   14.9630000000
     143       6   1 -0.5207   10.0990000000    5.2390000000   14.0770000000
     144       6   2  0.9928   10.0710000000    6.3050000000   13.0010000000
     145       6   3 -0.6336   10.9160000000    7.1820000000   12.8680000000
     146       6   4 -0.5061    8.9800000000    6.1620000000   12.1960000000
     147       6   1  0.0774    8.9070000000    7.1490000000   11.1600000000
     148       6   5  0.0466   13.6540000000    3.7360000000   18.6400000000
     149       6   5  0.0466   12.8160000000    2.5600000000   17.6100000000
     150       6   5  0.0466   11.8850000000    3.6200000000   18.6850000000
     151       6   5 -0.0055   13.5680000000    4.5540000000   16.3030000000
     152       6   5 -0.0055   12.6420000000    5.6090000000   17.3720000000
     153       6   5  0.0082   10.5280000000    4.4320000000   16.7020000000
     154       6   5  0.0082   11.4550000000    3.3760000000   15.6320000000
     155       6   5 -0.0207   12.2370000000    5.3740000000   14.3440000000
     156       6   5 -0.0207   11.3130000000    6.4260000000   15.4100000000
     157       6   5  0.1344    9.1900000000    5.3170000000   14.6850000000
     158       6   5  0.1344   10.1270000000    4.2500000000   13.6040000000
     159       6   6  0.0599    8.0080000000    6.9640000000   10.5640000000
     160       6   6  0.0599    9.7770000000    7.0790000000   10.4970000000
     161       6   6  0.0599    8.8310000000    8.1550000000   11.5880000000
     162       7   1 -0.2116    1.6630000000   30.6270000000   16.6570000000
     163       7   1  0.0838    1.0830000000   31.4540000000   17.7910000000
     164       7   1 -0.0009    1.7160000000   32.8440000000   17.8310000000
     165       7   1  0.1663    1.1310000000   33.6710000000   18.9700000000
     166       7   1 -0.5207    1.7360000000   35.0740000000   19.0510000000
     167       7   2  0.9928    1.1130000000   35.8400000000   20.2000000000
     168       7   3 -0.6336    0.2520000000   35.3940000000   20.9490000000
     169       7   4 -0.5061    1.6350000000   37.0960000000   20.2940000000
     170       7   1  0.0774    1.0780000000   37.8630000000   21.3680000000
     171       7   5  0.0466    1.2050000000   29.6340000000   16.6350000000
     172       7   5  0.0466    2.7430000000   30.5040000000   16.7820000000
     173       7   5  0.0466    1.4810000000   31.1110000000   15.6930000000
     174       7   5 -0.0055    1.2520000000   30.9350000000   18.7420000000
     175       7   5 -0.0055   -0.0030000000   31.5390000000   17.6600000000
     176       7   5  0.0082    1.5440000000   33.3540000000   16.8760000000
     177       7   5  0.0082    2.8010000000   32.7500000000   17.9600000000
     178       7   5 -0.0207    1.2970000000   33.1470000000   19.9200000000
     179       7   5 -0.0207    0.0440000000   33.7490000000   18.8400000000
     180       7   5  0.1344    1.5490000000   35.6130000000   18.1150000000
     181       7   5  0.1344    2.8180000000   35.0030000000   19.2100000000
     182       7   6  0.0599    1.5480000000   38.8500000000   21.3720000000
     183       7   6  0.0599    1.2800000000   37.3830000000   22.3320000000
     184       7   6  0.0599   -0.0010000000   37.9990000000   21.2270000000
     185       8   1 -0.2116   33.9640000000   30.5390000000   27.2820000000
     186       8   1  0.0838   33.4510000000   29.6050000000   26.2000000000
     187       8   1 -0.0009   32.0090000000   29.9450000000   25.8250000000
     188       8   1  0.1663   31.4980000000   29.0060000000   24.7390000000
     189       8   1 -0.5207   30.0550000000   29.3090000000   24.3300000000
     190       8   2  0.9928   29.6100000000   28.3420000000   23.2510000000
     191       8   3 -0.6336   30.3100000000   27.4530000000   22.7820000000
     192       8   4 -0.5061   28.3260000000   28.5910000000   22.8670000000
     193       8   1  0.0774   27.8560000000   27.7020000000   21.8460000000
     194       8   5  0.0466   34.9960000000   30.2890000000   27.5450000000
     195       8   5  0.0466   33.3510000000   30.4590000000   28.1840000000
     196       8   5  0.0466   33.9390000000   31.5780000000   26.9400000000
     197       8   5 -0.0055   33.5130000000   28.5690000000   26.5550000000
     198       8   5 -0.0055   34.0980000000   29.6810000000   25.3170000000
     199       8   5  0.0082   31.9560000000   30.9830000000   25.4740000000
     200       8   5  0.0082   31.3700000000   29.8690000000   26.7130000000
     201       8   5 -0.0207   31.5660000000   27.9700000000   25.0940000000
     202       8   5 -0.0207   32.1490000000   29.0800000000   23.8600000000
     203       8   5  0.1344   29.9850000000   30.3340000000   23.9460000000
     204       8   5  0.1344   29.3940000000   29.2080000000   25.1980000000
     205       8   6  0.0599   26.8250000000   27.9680000000   21.5990000000
     206       8   6  0.0599   27.8660000000   26.6650000000   22.2020000000
     207       8   6  0.0599   28.4620000000   27.8010000000   20.9390000000
     208       9   1 -0.2116   30.1740000000    4.6000000000    9.7940000000
     209       9   1  0.0838   30.1120000000    3.3780000000   10.6930000000
     210       9   1 -0.0009   29.6730000000    3.7630000000   12.1060000000
     211       9   1  0.1663   29.6120000000    2.5350000000   13.0050000000
     212       9   1 -0.5207   29.1760000000    2.8710000000   14.4330000000
     213       9   2  0.9928   29.1370000000    1.6100000000   15.2720000000
     214       9   3 -0.6336   29.4150000000    0.4900000000   14.8600000000
     215       9   4 -0.5061   28.7500000000    1.8820000000   16.5510000000
     216       9   1  0.0774   28.6970000000    0.7190000000   17.3870000000
     217       9   5  0.0466   30.4890000000    4.3160000000    8.7850000000
     218       9   5  0.0466   30.8880000000    5.3310000000   10.1830000000
     219       9   5  0.0466   29.1930000000    5.0790000000    9.7250000000
     220       9   5 -0.0055   31.0980000000    2.8990000000   10.7230000000
     221       9   5 -0.0055   29.4130000000    2.6480000000   10.2680000000
     222       9   5  0.0082   28.6880000000    4.2430000000   12.0660000000
     223       9   5  0.0082   30.3760000000    4.4940000000   12.5220000000
     224       9   5 -0.0207   30.5980000000    2.0530000000   13.0290000000
     225       9   5 -0.0207   28.9160000000    1.8040000000   12.5740000000
     226       9   5  0.1344   28.1790000000    3.3250000000   14.4190000000
     227       9   5  0.1344   29.8840000000    3.5790000000   14.8800000000
     228       9   6  0.0599   28.3810000000    1.0240000000   18.3890000000
     229       9   6  0.0599   29.6860000000    0.2550000000   17.4670000000
     230       9   6  0.0599   27.9660000000   -0.0010000000   17.0020000000
     231      10   1 -0.2116   25.8110000000    3.2210000000   35.6210000000
     232      10   1  0.0838   26.4290000000    4.4480000000   36.2680000000
     233      10   1 -0.0009   25.9920000000    5.7230000000   35.5470000000
     234      10   1  0.1663   26.6130000000    6.9520000000   36.1990000000
     235      10   1 -0.5207   26.2040000000    8.2550000000   35.5100000000
     236      10   2  0.9928   26.8540000000    9.4340000000   36.2050000000
     237      10   3 -0.6336   27.5970000000    9.3470000000   37.1760000000
     238      10   4 -0.5061   26.5050000000   10.6100000000   35.6100000000
     239      10   1  0.0774   27.0960000000   11.7580000000   36.2320000000
     240      10   5  0.0466   26.1290000000    2.3130000000   36.1420000000
     241      10   5  0.0466   26.1180000000    3.1400000000   34.5730000000
     242      10   5  0.0466   24.7190000000    3.2730000000   35.6560000000
     243      10   5 -0.0055   27.5220000000    4.3590000000   36.2460000000
     244      10   5 -0.0055   26.1310000000    4.4910000000   37.3230000000
     245      10   5  0.0082   24.8990000000    5.8020000000   35.5710000000
     246      10   5  0.0082   26.2920000000    5.6700000000   34.4930000000
     247      10   5 -0.0207   27.7070000000    6.8580000000   36.1810000000
     248      10   5 -0.0207   26.3180000000    6.9900000000   37.2550000000
     249      10   5  0.1344   25.1150000000    8.3700000000   35.5490000000
     250      10   5  0.1344   26.5220000000    8.2360000000   34.4610000000
     251      10   6  0.0599   26.7670000000   12.6530000000   35.6960000000
     252      10   6  0.0599   28.1890000000   11.7080000000   36.1760000000
     253      10   6  0.0599   26.7690000000   11.8430000000   37.2740000000
     254      11   1 -0.2116   18.0350000000    3.9220000000   24.1770000000
     255      11   1  0.0838   18.0340000000    5.4110000000   24.4730000000
     256      11   1 -0.0009   18.5310000000    5.6850000000   25.8920000000
     257      11   1  0.1663   18.5290000000    7.1800000000   26.1860000000
     258      11   1 -0.5207   19.0200000000    7.5040000000   27.5980000000
     259      11   2  0.9928   18.9930000000    9.0020000000   27.8240000000
     260      11   3 -0.6336   18.6290000000    9.8250000000   26.9920000000
     261      11   4 -0.5061   19.4270000000    9.3180000000   29.0770000000
     262      11   1  0.0774   19.4200000000   10.7270000000   29.3410000000
     263      11   5  0.0466   17.6770000000    3.7350000000   23.1600000000
     264      11   5  0.0466   17.3810000000    3.3890000000   24.8740000000
     265      11   5  0.0466   19.0440000000    3.5100000000   24.2670000000
     266      11   5 -0.0055   17.0180000000    5.8060000000   24.3470000000
     267      11   5 -0.0055   18.6710000000    5.9270000000   23.7450000000
     268      11   5  0.0082   19.5450000000    5.2850000000   26.0090000000
     269      11   5  0.0082   17.8900000000    5.1640000000   26.6130000000
     270      11   5 -0.0207   17.5130000000    7.5740000000   26.0540000000
     271      11   5 -0.0207   19.1630000000    7.6950000000   25.4520000000
     272      11   5  0.1344   20.0460000000    7.1390000000   27.7270000000
     273      11   5  0.1344   18.3730000000    7.0170000000   28.3370000000
     274      11   6  0.0599   19.7800000000   10.8920000000   30.3610000000
     275      11   6  0.0599   18.4040000000   11.1290000000   29.2680000000
     276      11   6  0.0599   20.0910000000   11.2520000000   28.6530000000
     277      12   1 -0.2116   30.9640000000   34.3800000000   39.0800000000
     278      12   1  0.0838   32.4390000000   34.7160000000   38.9510000000
     279      12   1 -0.0009   33.2720000000   33.4480000000   38.7650000000
     280      12   1  0.1663   34.7520000000   33.7890000000   38.6360000000
     281      12   1 -0.5207   35.6280000000   32.5480000000   38.4470000000
     282      12   2  0.9928   37.0820000000   32.9560000000   38.3260000000
     283      12   3 -0.6336   37.4870000000   34.1120000000   38.3740000000
     284      12   4 -0.5061   37.8850000000   31.8680000000   38.1570000000
     285      12   1  0.0774   39.2740000000   32.2010000000   38.0370000000
     286      12   5  0.0466   30.3750000000   35.2930000000   39.2130000000
     287      12   5  0.0466   30.7890000000   33.7300000000   39.9420000000
     288      12   5  0.0466   30.6040000000   33.8670000000   38.1830000000
     289      12   5 -0.0055   32.7690000000   35.2550000000   39.8480000000
     290      12   5 -0.0055   32.5850000000   35.3910000000   38.0990000000
     291      12   5  0.0082   32.9340000000   32.9150000000   37.8680000000
     292      12   5  0.0082   33.1180000000   32.7790000000   39.6190000000
     293      12   5 -0.0207   35.0780000000   34.3330000000   39.5310000000
     294      12   5 -0.0207   34.8950000000   34.4690000000   37.7860000000
     295      12   5  0.1344   35.3260000000   32.0160000000   37.5380000000
     296      12   5  0.1344   35.5120000000   31.8780000000   39.3070000000
     297      12   6  0.0599   39.8440000000   31.2770000000   37.9050000000
     298      12   6  0.0599   39.6320000000   32.6970000000   38.9460000000
     299      12   6  0.0599   39.4450000000   32.8360000000   37.1610000000
     300      13   1 -0.2116   28.9470000000    0.8220000000   21.9660000000
     301      13   1  0.0838   29.9450000000    1.6640000000   21.1920000000
     302      13   1 -0.0009   30.6890000000    0.8170000000   20.1590000000
     303      13   1  0.1663   31.6900000000    1.6660000000   19.3850000000
     304      13   1 -0.5207   32.4610000000    0.8600000000   18.3370000000
     305      13   2  0.9928   33.4350000000    1.7600000000   17.6060000000
     306      13   3 -0.6336   33.5790000000    2.9570000000   17.8280000000
     307      13   4 -0.5061   34.1360000000    1.0650000000   16.6660000000
     308      13   1  0.0774   35.0730000000    1.8740000000   15.9440000000
     309      13   5  0.0466   28.4190000000    1.4350000000   22.7020000000
     310      13   5  0.0466   29.4540000000    0.0100000000   22.4950000000
     311      13   5  0.0466   28.2070000000    0.3820000000   21.2900000000
     312      13   5 -0.0055   30.6590000000    2.1160000000   21.8920000000
     313      13   5 -0.0055   29.4180000000    2.4870000000   20.6940000000
     314      13   5  0.0082   29.9690000000    0.3670000000   19.4660000000
     315      13   5  0.0082   31.2110000000   -0.0040000000   20.6650000000
     316      13   5 -0.0207   32.3990000000    2.1220000000   20.0880000000
     317      13   5 -0.0207   31.1610000000    2.4920000000   18.8930000000
     318      13   5  0.1344   31.7600000000    0.4250000000   17.6150000000
     319      13   5  0.1344   33.0150000000    0.0500000000   18.8260000000
     320      13   6  0.0599   35.5890000000    1.2440000000   15.2150000000
     321      13   6  0.0599   35.8230000000    2.2950000000   16.6230000000
     322      13   6  0.0599   34.5570000000    2.6730000000   15.4010000000
     323      14   1 -0.2116   26.3270000000    8.1920000000   20.7750000000
     324      14   1  0.0838   25.3940000000    8.9970000000   19.8880000000
     325      14   1 -0.0009   24.3090000000    9.6830000000   20.7190000000
     326      14   1  0.1663   23.3750000000   10.4900000000   19.8260000000
     327      14   1 -0.5207   22.2690000000   11.1960000000   20.6150000000
     328      14   2  0.9928   21.3790000000   11.9780000000   19.6710000000
     329      14   3 -0.6336   21.5290000000   12.0310000000   18.4560000000
     330      14   4 -0.5061   20.3840000000   12.6170000000   20.3490000000
     331      14   1  0.0774   19.5130000000   13.3720000000   19.4990000000
     332      14   5  0.0466   27.1000000000    7.7050000000   20.1730000000
     333      14   5  0.0466   25.7740000000    7.4180000000   21.3160000000
     334      14   5  0.0466   26.8190000000    8.8390000000   21.5070000000
     335      14   5 -0.0055   24.9350000000    8.3340000000   19.1450000000
     336      14   5 -0.0055   25.9740000000    9.7470000000   19.3360000000
     337      14   5  0.0082   24.7760000000   10.3420000000   21.4600000000
     338      14   5  0.0082   23.7360000000    8.9280000000   21.2700000000
     339      14   5 -0.0207   22.9220000000    9.8250000000   19.0800000000
     340      14   5 -0.0207   23.9580000000   11.2340000000   19.2700000000
     341      14   5  0.1344   22.7150000000   11.8840000000   21.3430000000
     342      14   5  0.1344   21.6640000000   10.4550000000   21.1500000000
     343      14   6  0.0599   18.7490000000   13.8500000000   20.1190000000
     344      14   6  0.0599   19.0090000000   12.7160000000   18.7810000000
     345      14   6  0.0599   20.0680000000   14.1580000000   18.9750000000
     346      15   1 -0.2116   15.5880000000   22.3740000000    9.1110000000
     347      15   1  0.0838   15.2700000000   23.1760000000   10.3600000000
     348      15   1 -0.0009   14.1040000000   22.5530000000   11.1270000000
     349      15   1  0.1663   13.7890000000   23.3610000000   12.3800000000
     350      15   1 -0.5207   12.6250000000   22.7740000000   13.1820000000
     351      15   2  0.9928   12.3650000000   23.6220000000   14.4110000000
     352      15   3 -0.6336   12.9970000000   24.6270000000   14.7090000000
     353      15   4 -0.5061   11.3310000000   23.1200000000   15.1440000000
     354      15   1  0.0774   11.0440000000   23.8870000000   16.3190000000
     355      15   5  0.0466   16.4230000000   22.8260000000    8.5680000000
     356      15   5  0.0466   14.7220000000   22.3400000000    8.4430000000
     357      15   5  0.0466   15.8630000000   21.3470000000    9.3700000000
     358      15   5 -0.0055   15.0260000000   24.2080000000   10.0780000000
     359      15   5 -0.0055   16.1600000000   23.2200000000   11.0000000000
     360      15   5  0.0082   14.3560000000   21.5220000000   11.4030000000