LAMMPS data file for TST

23 atoms
22 bonds
40 angles
59 dihedrals
0 impropers

6 atom types
7 bond types
11 angle types
16 dihedral types

-5.3739999999999997 49.100000000000001 xlo xhi
-1.333 49.109999999999999 ylo yhi
-0.90000000000000002 49.10000000000000002 zlo zhi

Masses

1 12.01
2 12.01
3 16.0
4 16.0
5 1.008
6 1.008

Pair Coeffs

1 0.10939999991572773 3.3996695084507409
2 0.086000000128358844 3.3996695079448309
3 0.20999999984182244 2.9599219016446874
4 0.17000000010548533 3.0000123432245225
5 0.01570000002623629 2.6495327872602221
6 0.015700000098461422 2.4713530426421655

Bond Coeffs

1 300.89999999999998 1.5375000000000001
2 330.60000000000002 1.0969
3 313.0 1.5241
4 637.70000000000005 1.2182999999999999
5 390.80000000000001 1.3584000000000001
6 308.60000000000002 1.4316
7 330.60000000000002 1.0969

Angle Coeffs

1 62.859999999999999 111.51004761858671
2 46.340000000000003 109.80004705760963
3 63.270000000000003 111.04004747445191
4 67.400000000000006 123.20005280052374
5 68.890000000000001 110.72004768108238
6 46.93 108.77004655888091
7 63.280000000000001 115.98004947702422
8 75.319999999999993 123.25005253547363
9 50.799999999999997 109.780046819855
10 39.399999999999999 107.58004587698851
11 39.240000000000002 108.46004659790978

Dihedral Coeffs

1 0.20000000000000001 -1 1
2 0.25 -1 2
3 0.17999999999999999 1 3
4 0.16 1 3
5 0.15555555600000001 1 3
6 0.0 -1 2
7 0.0 1 1
8 2.7000000000000002 -1 2
9 1.1499999999999999 1 3
10 0.383333333 1 3
11 0.80000000000000004 1 1
12 0.0 1 2
13 0.080000000000000002 -1 3
14 1.3999999999999999 -1 1
15 0.14999999999999999 1 3
16 10.5 -1 2

Atoms

1 0 1 -0.21159599995609774 -4.5510000000000002 -0.187 0.0
2 0 1 0.083777000159145659 -3.2149999999999999 0.53400000000000003 0.0
3 0 1 -0.00093599999999999987 -2.0569999999999999 -0.46400000000000002 -0.0
4 0 1 0.16627899990670769 -0.71799999999999997 0.26300000000000001 0.0
5 0 1 -0.52065600006585344 0.47399999999999998 -0.69699999999999995 -0.0
6 0 2 0.99278900029085237 1.77 0.087999999999999995 -0.0
7 0 3 -0.63359500172865113 1.843 1.3109999999999999 0.0
8 0 4 -0.50608500024695013 2.8490000000000002 -0.745 0.0
9 0 1 0.077420000219511259 4.1020000000000003 -0.050000000000000003 -0.0
10 0 5 0.046633000005487778 -5.3739999999999997 0.53400000000000003 0.0
11 0 5 0.046633000005487778 -4.649 -0.81999999999999995 0.88700000000000001
12 0 5 0.046633000005487778 -4.649 -0.81999999999999995 -0.88700000000000001
13 0 5 -0.0055060000109755629 -3.1520000000000001 1.1830000000000001 0.88200000000000001
14 0 5 -0.0055060000109755629 -3.1520000000000001 1.1830000000000001 -0.88200000000000001
15 0 5 0.008182000021951125 -2.129 -1.1100000000000001 -0.88300000000000001
16 0 5 0.008182000021951125 -2.129 -1.1100000000000001 0.88300000000000001
17 0 5 -0.020650999983536655 -0.66000000000000003 0.91600000000000004 0.88
18 0 5 -0.020650999983536655 -0.66000000000000003 0.91600000000000004 -0.88
19 0 5 0.13440400004390224 0.438 -1.333 -0.89200000000000002
20 0 5 0.13440400004390224 0.438 -1.333 0.89200000000000002
21 0 6 0.059947999978048873 4.9100000000000001 -0.78700000000000003 -0.0
22 0 6 0.059947999978048873 4.202 0.56699999999999995 0.90000000000000002
23 0 6 0.059947999978048873 4.202 0.56699999999999995 -0.90000000000000002

Bonds

1 2 1 10
2 2 1 11
3 2 1 12
4 2 2 13
5 2 2 14
6 2 3 15
7 2 3 16
8 2 4 17
9 2 4 18
10 2 5 19
11 2 5 20
12 7 9 21
13 7 9 22
14 7 9 23
15 1 1 2
16 1 2 3
17 1 3 4
18 1 4 5
19 3 5 6
20 4 6 7
21 5 6 8
22 6 8 9

Angles

1 2 1 2 13
2 2 1 2 14
3 2 2 1 10
4 2 2 1 11
5 2 2 1 12
6 2 2 3 15
7 2 2 3 16
8 2 3 2 13
9 2 3 2 14
10 2 3 4 17
11 2 3 4 18
12 2 4 3 15
13 2 4 3 16
14 2 4 5 19
15 2 4 5 20
16 2 5 4 17
17 2 5 4 18
18 6 6 5 19
19 6 6 5 20
20 9 8 9 21
21 9 8 9 22
22 9 8 9 23
23 10 10 1 11
24 10 10 1 12
25 10 11 1 12
26 10 13 2 14
27 10 15 3 16
28 10 17 4 18
29 10 19 5 20
30 11 21 9 22
31 11 21 9 23
32 11 22 9 23
33 1 1 2 3
34 1 2 3 4
35 1 3 4 5
36 3 4 5 6
37 4 5 6 7
38 5 5 6 8
39 7 6 8 9
40 8 7 6 8

Dihedrals

1 4 1 2 3 15
2 4 1 2 3 16
3 4 2 3 4 17
4 4 2 3 4 18
5 4 10 1 2 3
6 4 11 1 2 3
7 4 12 1 2 3
8 4 3 4 5 19
9 4 3 4 5 20
10 4 4 3 2 13
11 4 4 3 2 14
12 4 5 4 3 15
13 4 5 4 3 16
14 5 6 5 4 17
15 5 6 5 4 18
16 10 6 8 9 21
17 10 6 8 9 22
18 10 6 8 9 23
19 11 7 6 5 19
20 12 7 6 5 19
21 13 7 6 5 19
22 11 7 6 5 20
23 12 7 6 5 20
24 13 7 6 5 20
25 6 8 6 5 19
26 6 8 6 5 20
27 15 10 1 2 13
28 15 10 1 2 14
29 15 11 1 2 13
30 15 11 1 2 14
31 15 12 1 2 13
32 15 12 1 2 14
33 15 13 2 3 15
34 15 13 2 3 16
35 15 14 2 3 15
36 15 14 2 3 16
37 15 15 3 4 17
38 15 15 3 4 18
39 15 16 3 4 17
40 15 16 3 4 18
41 15 17 4 5 19
42 15 17 4 5 20
43 15 18 4 5 19
44 15 18 4 5 20
45 1 1 2 3 4
46 2 1 2 3 4
47 3 1 2 3 4
48 1 2 3 4 5
49 2 2 3 4 5
50 3 2 3 4 5
51 5 3 4 5 6
52 6 4 5 6 7
53 6 4 5 6 8
54 7 5 6 8 9
55 8 5 6 8 9
56 9 5 6 8 9
57 14 7 6 8 9
58 8 7 6 8 9
59 16 5 7 6 8

